ITEM: TIMESTEP
99
ITEM: NUMBER OF ATOMS
60
ITEM: BOX BOUNDS
-40	40
-40	40
-40	40
ITEM: ATOMS index type x y z
     0	1	 18.9564	 20.5354	 12.5322
     1	1	-14.5643	 24.0474	 1.55401
     2	1	-26.1812	-1.93314	-8.50685
     3	1	 6.31456	  31.466	 13.0795
     4	1	-0.109758	 4.78944	-25.0988
     5	1	 11.7016	  17.808	 10.8331
     6	1	-5.38393	-28.3816	 -7.8688
     7	1	 14.7687	-26.0166	-4.67504
     8	1	-35.9185	-14.9077	0.488421
     9	1	 -25.089	0.871623	 19.0221
    10	1	-10.5866	-26.7957	-3.15115
    11	1	 10.0986	 14.0298	 15.6575
    12	1	-1.69548	-32.3815	-12.7405
    13	1	-31.9781	-5.01309	-2.00074
    14	1	 -6.3794	 21.9247	 9.84393
    15	1	-8.60175	 9.63339	-12.1093
    16	1	-35.8528	  8.9323	 5.32305
    17	1	-0.0873702	 17.6802	-28.0803
    18	1	-20.3748	-9.39784	 -4.7373
    19	1	 7.88237	 11.4191	 -5.3215
    20	1	  4.4208	 17.1294	 11.2459
    21	1	 12.9899	 14.6298	-24.4105
    22	1	 -29.161	-1.22875	-9.90284
    23	1	-19.2825	 10.9763	 5.99666
    24	1	-19.0608	 -24.364	 -4.2924
    25	1	 25.9049	-17.0785	 8.70596
    26	1	-20.8226	-7.04511	 14.0392
    27	1	-29.9544	 -1.6434	 21.9526
    28	1	-13.0699	-23.4889	-12.4155
    29	1	 12.1294	 14.4363	 8.68379
    30	1	 8.99212	 36.7956	-0.229287
    31	1	 2.36063	-3.03276	 16.8277
    32	1	-15.8521	-14.2548	-15.7246
    33	1	 3.02122	-7.22983	-22.7218
    34	1	-20.4405	-9.11286	-3.55443
    35	1	-9.95528	 -4.7251	-30.1859
    36	1	-28.9379	-19.3739	-7.94391
    37	1	-10.3302	 17.8823	-17.5504
    38	1	 15.2919	0.0280225	-30.1458
    39	1	-27.5468	 14.3343	 17.4326
    40	1	 13.5069	 6.17659	   35.79
    41	1	  14.275	 4.21162	 6.87245
    42	1	 15.1359	-2.95068	 5.86525
    43	1	-33.7416	 10.9232	-8.86723
    44	1	 18.8504	-4.38183	-6.50108
    45	1	  20.608	-4.91755	 -24.412
    46	1	 6.09209	-29.0173	-14.3918
    47	1	-33.6804	 8.88253	 1.16482
    48	1	  9.8483	-29.1787	 11.4715
    49	1	-28.9021	 12.0812	-18.5485
    50	1	-9.33626	 7.12612	 13.4052
    51	1	 7.49248	 1.20402	-13.3728
    52	1	-8.15734	 30.3332	 21.4473
    53	1	 15.6775	-18.4865	 18.6991
    54	1	-27.4537	-7.80697	 2.49777
    55	1	 5.94005	 26.2566	-23.3332
    56	1	 24.7714	 24.2752	-1.45943
    57	1	 2.96396	 22.1865	-12.9675
    58	1	 15.7413	-5.85738	 25.6937
    59	1	-9.60954	 11.7187	-35.8918
ITEM: TIMESTEP
199
ITEM: NUMBER OF ATOMS
60
ITEM: BOX BOUNDS
-40	40
-40	40
-40	40
ITEM: ATOMS index type x y z
     0	1	 18.9568	 20.5348	  12.532
     1	1	-14.5634	 24.0461	 1.55372
     2	1	-26.1758	-1.93311	-8.50564
     3	1	 6.31443	 31.4656	 13.0794
     4	1	-0.10966	 4.78875	-25.0962
     5	1	 11.7003	  17.808	 10.8322
     6	1	-5.38294	-28.3801	-7.86801
     7	1	 14.7682	-26.0151	-4.67467
     8	1	-35.9187	-14.9083	0.488831
     9	1	-25.0869	0.871951	 19.0215
    10	1	-10.5857	-26.7941	 -3.1497
    11	1	  10.097	 14.0266	 15.6572
    12	1	-1.69509	-32.3814	-12.7406
    13	1	 -31.978	-5.01277	 -2.0005
    14	1	-6.37878	 21.9222	 9.84287
    15	1	-8.59824	 9.62932	-12.1043
    16	1	-35.8533	 8.93251	 5.32481
    17	1	-0.0873643	 17.6798	-28.0797
    18	1	-20.3689	-9.40292	-4.76284
    19	1	 7.87713	 11.4111	-5.31792
    20	1	 4.41838	 17.1256	 11.2435
    21	1	 12.9899	 14.6291	-24.4094
    22	1	-29.1626	-1.22769	-9.90474
    23	1	 -19.279	 10.9747	 5.99576
    24	1	-19.0602	-24.3634	-4.29165
    25	1	 25.9041	-17.0778	 8.70554
    26	1	-20.8197	  -7.045	 14.0383
    27	1	-29.9546	-1.64392	 21.9532
    28	1	-13.0689	-23.4876	-12.4155
    29	1	 12.1275	 14.4307	 8.67974
    30	1	 8.99204	 36.7952	-0.22946
    31	1	 2.35952	-3.03189	 16.8207
    32	1	-15.8502	-14.2534	-15.7238
    33	1	 3.02101	-7.22936	-22.7187
    34	1	-20.4373	 -9.1052	-3.52722
    35	1	-9.95492	-4.72515	-30.1849
    36	1	-28.9376	-19.3742	-7.94412
    37	1	-10.3296	 17.8812	-17.5491
    38	1	 15.2915	0.0280296	-30.1452
    39	1	-27.5461	 14.3344	 17.4327
    40	1	 13.5067	 6.17644	 35.7896
    41	1	 14.2681	 4.20931	 6.86898
    42	1	 15.1287	-2.95023	 5.86233
    43	1	-33.7412	 10.9236	-8.86743
    44	1	 18.8462	-4.38104	-6.49955
    45	1	 20.6077	-4.91774	-24.4107
    46	1	 6.09267	-29.0161	-14.3916
    47	1	 -33.679	 8.88275	 1.16365
    48	1	 9.84787	-29.1777	 11.4712
    49	1	-28.9013	 12.0813	-18.5487
    50	1	-9.33235	 7.12307	 13.4005
    51	1	 7.48806	 1.20296	-13.3642
    52	1	 -8.1573	 30.3328	 21.4473
    53	1	 15.6766	-18.4856	 18.6983
    54	1	-27.4516	-7.80687	 2.49907
    55	1	  5.9402	 26.2565	-23.3327
    56	1	 24.7711	 24.2745	-1.45961
    57	1	 2.96377	 22.1844	-12.9659
    58	1	 15.7406	-5.85722	 25.6925
    59	1	-9.60956	 11.7186	-35.8917
ITEM: TIMESTEP
299
ITEM: NUMBER OF ATOMS
60
ITEM: BOX BOUNDS
-40	40
-40	40
-40	40
ITEM: ATOMS index type x y z
     0	1	 18.9577	 20.5337	 12.5315
     1	1	-14.5615	 24.0434	 1.55316
     2	1	-26.1654	-1.93305	-8.50331
     3	1	 6.31418	 31.4648	 13.0791
     4	1	-0.109471	 4.78742	-25.0911
     5	1	 11.6979	 17.8078	 10.8305
     6	1	-5.38103	-28.3771	-7.86648
     7	1	 14.7673	-26.0122	-4.67395
     8	1	-35.9192	-14.9093	0.489625
     9	1	-25.0829	0.872587	 19.0204
    10	1	-10.5839	-26.7912	 -3.1469
    11	1	  10.094	 14.0203	 15.6567
    12	1	-1.69435	-32.3812	-12.7408
    13	1	-31.9779	-5.01215	-2.00005
    14	1	 -6.3776	 21.9174	 9.84081
    15	1	-8.59143	 9.62145	-12.0945
    16	1	-35.8543	 8.93291	 5.32822
    17	1	-0.0873527	 17.6789	-28.0785
    18	1	-20.3575	-9.41241	 -4.8109
    19	1	 7.86697	 11.3955	-5.31097
    20	1	  4.4137	 17.1184	 11.2387
    21	1	   12.99	 14.6277	-24.4073
    22	1	-29.1658	-1.22562	-9.90841
    23	1	-19.2723	 10.9716	 5.99403
    24	1	 -19.059	-24.3622	 -4.2902
    25	1	 25.9025	-17.0765	 8.70471
    26	1	-20.8142	 -7.0448	 14.0365
    27	1	-29.9549	 -1.6449	 21.9545
    28	1	 -13.067	-23.4852	-12.4154
    29	1	 12.1238	 14.4199	 8.67189
    30	1	 8.99189	 36.7945	-0.229795
    31	1	 2.35737	-3.03022	 16.8071
    32	1	-15.8465	-14.2505	-15.7224
    33	1	  3.0206	-7.22843	-22.7126
    34	1	-20.4309	-9.09071	-3.47594
    35	1	-9.95423	-4.72525	-30.1831
    36	1	 -28.937	-19.3748	-7.94453
    37	1	-10.3283	  17.879	-17.5464
    38	1	 15.2909	0.0280435	-30.1441
    39	1	-27.5447	 14.3346	 17.4328
    40	1	 13.5063	 6.17614	 35.7888
    41	1	 14.2548	 4.20484	 6.86226
    42	1	 15.1146	-2.94935	 5.85666
    43	1	-33.7404	 10.9244	-8.86782
    44	1	 18.8381	-4.37949	-6.49658
    45	1	 20.6072	-4.91811	-24.4083
    46	1	 6.09378	-29.0137	-14.3911
    47	1	-33.6762	 8.88319	  1.1614
    48	1	 9.84703	-29.1758	 11.4707
    49	1	   -28.9	 12.0815	-18.5491
    50	1	-9.32479	 7.11718	 13.3912
    51	1	 7.47949	 1.20089	-13.3477
    52	1	-8.15724	 30.3321	 21.4473
    53	1	  15.675	-18.4839	 18.6968
    54	1	-27.4473	-7.80666	 2.50159
    55	1	 5.94049	 26.2563	-23.3319
    56	1	 24.7706	 24.2732	-1.45995
    57	1	 2.96341	 22.1805	-12.9628
    58	1	 15.7392	 -5.8569	 25.6903
    59	1	-9.60961	 11.7182	-35.8914
ITEM: TIMESTEP
399
ITEM: NUMBER OF ATOMS
60
ITEM: BOX BOUNDS
-40	40
-40	40
-40	40
ITEM: ATOMS index type x y z
     0	1	  18.959	 20.5319	 12.5308
     1	1	-14.5584	 24.0391	 1.55224
     2	1	-26.1483	-1.93294	 -8.4995
     3	1	 6.31377	 31.4635	 13.0787
     4	1	-0.109163	 4.78525	-25.0829
     5	1	 11.6939	 17.8075	 10.8277
     6	1	-5.37791	-28.3722	-7.86399
     7	1	 14.7658	-26.0074	-4.67276
     8	1	  -35.92	-14.9109	0.490923
     9	1	-25.0764	0.873624	 19.0186
    10	1	-10.5809	-26.7864	-3.14232
    11	1	  10.089	 14.0102	 15.6559
    12	1	-1.69314	-32.3808	-12.7412
    13	1	-31.9778	-5.01113	-1.99931
    14	1	-6.37566	 21.9095	 9.83745
    15	1	-8.58031	 9.60857	-12.0786
    16	1	-35.8559	 8.93357	 5.33377
    17	1	-0.0873337	 17.6774	-28.0765
    18	1	-20.3391	-9.42722	-4.88646
    19	1	 7.85036	 11.3701	-5.29961
    20	1	 4.40605	 17.1066	  11.231
    21	1	   12.99	 14.6256	-24.4038
    22	1	-29.1709	-1.22226	 -9.9144
    23	1	-19.2613	 10.9666	 5.99121
    24	1	 -19.057	-24.3604	-4.28782
    25	1	    25.9	-17.0743	 8.70335
    26	1	-20.8053	-7.04447	 14.0336
    27	1	-29.9554	-1.64652	 21.9565
    28	1	-13.0638	-23.4813	-12.4153
    29	1	 12.1177	 14.4021	 8.65907
    30	1	 8.99165	 36.7934	-0.230343
    31	1	 2.35386	-3.02748	  16.785
    32	1	-15.8405	-14.2458	  -15.72
    33	1	 3.01993	-7.22692	-22.7027
    34	1	-20.4204	-9.06774	-3.39511
    35	1	-9.95311	 -4.7254	-30.1801
    36	1	-28.9361	-19.3757	-7.94519
    37	1	-10.3263	 17.8755	 -17.542
    38	1	 15.2898	0.0280661	-30.1422
    39	1	-27.5424	  14.335	 17.4331
    40	1	 13.5056	 6.17567	 35.7875
    41	1	  14.233	 4.19752	 6.85128
    42	1	 15.0916	-2.94791	  5.8474
    43	1	-33.7392	 10.9258	-8.86846
    44	1	 18.8248	-4.37697	-6.49172
    45	1	 20.6064	-4.91872	-24.4044
    46	1	 6.09561	-29.0099	-14.3903
    47	1	-33.6716	 8.88389	 1.15773
    48	1	 9.84566	-29.1725	 11.4697
    49	1	-28.8977	 12.0818	-18.5498
    50	1	-9.31241	 7.10754	  13.376
    51	1	 7.46547	  1.1975	-13.3206
    52	1	-8.15713	 30.3309	 21.4472
    53	1	 15.6722	-18.4812	 18.6942
    54	1	-27.4405	-7.80633	  2.5057
    55	1	 5.94096	 26.2561	-23.3305
    56	1	 24.7697	  24.271	-1.46052
    57	1	 2.96283	  22.174	-12.9577
    58	1	 15.7369	-5.85637	 25.6867
    59	1	-9.60968	 11.7177	-35.8909
ITEM: TIMESTEP
499
ITEM: NUMBER OF ATOMS
60
ITEM: BOX BOUNDS
-40	40
-40	40
-40	40
ITEM: ATOMS index type x y z
     0	1	  18.961	 20.5291	 12.5296
     1	1	-14.5538	 24.0326	 1.55086
     2	1	-26.1227	-1.93277	-8.49379
     3	1	 6.31315	 31.4616	 13.0781
     4	1	-0.108698	 4.78198	-25.0705
     5	1	  11.688	 17.8071	 10.8234
     6	1	-5.37322	-28.3647	-7.86024
     7	1	 14.7636	-26.0002	-4.67098
     8	1	-35.9211	-14.9134	0.492877
     9	1	-25.0666	0.875185	 19.0159
    10	1	-10.5764	-26.7792	-3.13543
    11	1	 10.0814	 13.9949	 15.6547
    12	1	-1.69131	-32.3803	-12.7417
    13	1	-31.9775	 -5.0096	-1.99819
    14	1	-6.37275	 21.8976	 9.83239
    15	1	-8.56355	 9.58917	-12.0546
    16	1	-35.8584	 8.93457	 5.34214
    17	1	-0.0873051	 17.6751	-28.0735
    18	1	-20.3116	-9.44836	-4.99548
    19	1	 7.82532	 11.3318	-5.28249
    20	1	 4.39454	 17.0888	 11.2193
    21	1	   12.99	 14.6223	-24.3986
    22	1	-29.1787	-1.21721	 -9.9234
    23	1	-19.2447	 10.9591	 5.98695
    24	1	 -19.054	-24.3576	-4.28424
    25	1	 25.8961	 -17.071	  8.7013
    26	1	-20.7917	-7.04397	 14.0293
    27	1	-29.9562	-1.64895	 21.9596
    28	1	 -13.059	-23.4754	-12.4152
    29	1	 12.1084	 14.3755	 8.63978
    30	1	 8.99128	 36.7916	-0.231167
    31	1	 2.34857	-3.02335	 16.7516
    32	1	-15.8315	-14.2387	-15.7164
    33	1	 3.01893	-7.22464	-22.6879
    34	1	-20.4042	 -9.0343	-3.27816
    35	1	-9.95141	-4.72564	-30.1756
    36	1	-28.9347	-19.3771	-7.94619
    37	1	-10.3232	 17.8703	-17.5353
    38	1	 15.2882	  0.0281	-30.1394
    39	1	 -27.539	 14.3355	 17.4334
    40	1	 13.5045	 6.17495	 35.7855
    41	1	 14.2001	 4.18649	 6.83473
    42	1	 15.0569	-2.94574	 5.83344
    43	1	-33.7373	 10.9278	-8.86942
    44	1	 18.8048	-4.37318	-6.48441
    45	1	 20.6051	-4.91963	-24.3984
    46	1	 6.09836	-29.0041	-14.3892
    47	1	-33.6647	 8.88496	  1.1522
    48	1	 9.84359	-29.1677	 11.4683
    49	1	-28.8943	 12.0823	-18.5509
    50	1	-9.29376	 7.09301	 13.3531
    51	1	 7.44434	  1.1924	-13.2798
    52	1	-8.15697	 30.3291	 21.4472
    53	1	 15.6681	 -18.477	 18.6903
    54	1	-27.4301	-7.80583	 2.51189
    55	1	 5.94167	 26.2557	-23.3285
    56	1	 24.7684	 24.2676	-1.46136
    57	1	 2.96194	 22.1643	-12.9501
    58	1	 15.7334	-5.85558	 25.6812
    59	1	-9.60979	  11.717	-35.8901
ITEM: TIMESTEP
599
ITEM: NUMBER OF ATOMS
60
ITEM: BOX BOUNDS
-40	40
-40	40
-40	40
ITEM: ATOMS index type x y z
     0	1	 18.9639	 20.5252	  12.528
     1	1	-14.5471	 24.0233	 1.54887
     2	1	 -26.086	-1.93249	-8.48563
     3	1	 6.31225	 31.4589	 13.0772
     4	1	-0.108031	 4.77729	-25.0527
     5	1	 11.6795	 17.8065	 10.8172
     6	1	-5.36648	-28.3541	-7.85486
     7	1	 14.7605	  -25.99	-4.66842
     8	1	-35.9228	 -14.917	0.495677
     9	1	-25.0526	0.877421	  19.012
    10	1	-10.5699	-26.7688	-3.12555
    11	1	 10.0706	 13.9729	  15.653
    12	1	-1.68869	-32.3796	-12.7425
    13	1	-31.9772	-5.00741	-1.99659
    14	1	-6.36856	 21.8805	 9.82513
    15	1	-8.53949	 9.56133	-12.0202
    16	1	-35.8619	 8.93599	 5.35411
    17	1	-0.087264	 17.6719	-28.0692
    18	1	-20.2727	-9.47711	-5.14527
    19	1	 7.78936	 11.2768	-5.25791
    20	1	 4.37803	 17.0632	 11.2025
    21	1	   12.99	 14.6176	-24.3911
    22	1	-29.1897	-1.20999	-9.93626
    23	1	-19.2209	 10.9483	 5.98084
    24	1	-19.0498	-24.3535	-4.27911
    25	1	 25.8906	-17.0662	 8.69837
    26	1	-20.7723	-7.04325	  14.023
    27	1	-29.9573	-1.65244	  21.964
    28	1	-13.0522	 -23.467	 -12.415
    29	1	 12.0952	 14.3372	 8.61213
    30	1	 8.99076	 36.7891	-0.23235
    31	1	 2.34097	-3.01743	 16.7037
    32	1	-15.8185	-14.2286	-15.7113
    33	1	 3.01748	-7.22137	-22.6665
    34	1	-20.3805	-8.98791	-3.11699
    35	1	-9.94897	-4.72598	-30.1691
    36	1	-28.9327	 -19.379	-7.94762
    37	1	-10.3187	 17.8628	-17.5258
    38	1	 15.2859	0.0281487	-30.1354
    39	1	-27.5341	 14.3362	 17.4339
    40	1	  13.503	 6.17392	 35.7827
    41	1	  14.153	 4.17067	 6.81097
    42	1	 15.0071	-2.94261	  5.8134
    43	1	-33.7347	 10.9308	-8.87079
    44	1	 18.7761	-4.36773	-6.47392
    45	1	 20.6034	-4.92094	-24.3899
    46	1	  6.1023	-28.9958	-14.3875
    47	1	-33.6548	 8.88649	 1.14429
    48	1	 9.84063	-29.1608	 11.4663
    49	1	-28.8894	  12.083	-18.5524
    50	1	-9.26701	 7.07217	 13.3202
    51	1	 7.41401	 1.18509	-13.2213
    52	1	-8.15673	 30.3265	 21.4471
    53	1	 15.6623	-18.4711	 18.6848
    54	1	-27.4152	-7.80511	 2.52076
    55	1	 5.94268	 26.2551	-23.3255
    56	1	 24.7666	 24.2629	-1.46258
    57	1	 2.96068	 22.1504	-12.9392
    58	1	 15.7285	-5.85445	 25.6734
    59	1	-9.60994	 11.7159	-35.8891
ITEM: TIMESTEP
699
ITEM: NUMBER OF ATOMS
60
ITEM: BOX BOUNDS
-40	40
-40	40
-40	40
ITEM: ATOMS index type x y z
     0	1	 18.9679	 20.5197	 12.5258
     1	1	-14.5379	 24.0104	 1.54612
     2	1	-26.0352	-1.93208	-8.47437
     3	1	 6.31102	 31.4551	  13.076
     4	1	-0.107105	 4.77079	 -25.028
     5	1	 11.6677	 17.8055	 10.8087
     6	1	-5.35714	-28.3394	 -7.8474
     7	1	 14.7561	-25.9757	-4.66488
     8	1	-35.9251	 -14.922	0.499558
     9	1	-25.0331	0.880516	 19.0066
    10	1	 -10.561	-26.7544	-3.11185
    11	1	 10.0556	 13.9425	 15.6506
    12	1	-1.68507	-32.3786	-12.7436
    13	1	-31.9766	-5.00438	-1.99438
    14	1	-6.36276	 21.8569	 9.81507
    15	1	-8.50612	 9.52271	-11.9724
    16	1	-35.8667	 8.93797	 5.37069
    17	1	-0.087207	 17.6675	-28.0632
    18	1	-20.2192	-9.51502	 -5.3449
    19	1	 7.73944	 11.2004	-5.22379
    20	1	 4.35515	 17.0277	 11.1793
    21	1	 12.9901	 14.6111	-24.3807
    22	1	-29.2049	-1.20003	-9.95403
    23	1	 -19.188	 10.9334	 5.97237
    24	1	-19.0439	-24.3479	  -4.272
    25	1	 25.8829	-17.0597	 8.69431
    26	1	-20.7454	-7.04225	 14.0144
    27	1	-29.9589	-1.65727	   21.97
    28	1	-13.0427	-23.4553	-12.4147
    29	1	 12.0768	 14.2842	 8.57385
    30	1	 8.99003	 36.7857	-0.233988
    31	1	 2.33044	 -3.0092	 16.6373
    32	1	-15.8005	-14.2146	-15.7042
    33	1	 3.01549	-7.21683	-22.6369
    34	1	-20.3473	-8.92552	 -2.9016
    35	1	 -9.9456	-4.72645	-30.1602
    36	1	-28.9299	-19.3817	 -7.9496
    37	1	-10.3126	 17.8523	-17.5126
    38	1	 15.2827	0.0282159	-30.1298
    39	1	-27.5272	 14.3371	 17.4346
    40	1	 13.5008	 6.17249	 35.7788
    41	1	 14.0875	 4.14872	 6.77802
    42	1	  14.938	-2.93828	 5.78561
    43	1	-33.7309	 10.9348	 -8.8727
    44	1	 18.7362	-4.36018	-6.45937
    45	1	 20.6009	-4.92275	 -24.378
    46	1	 6.10776	-28.9843	-14.3852
    47	1	-33.6411	  8.8886	 1.13335
    48	1	 9.83653	-29.1512	 11.4635
    49	1	-28.8827	 12.0839	-18.5545
    50	1	 -9.2299	 7.04327	 13.2746
    51	1	  7.3719	 1.17493	  -13.14
    52	1	-8.15641	  30.323	  21.447
    53	1	 15.6541	-18.4629	 18.6772
    54	1	-27.3946	-7.80411	 2.53305
    55	1	 5.94409	 26.2544	-23.3215
    56	1	  24.764	 24.2562	-1.46426
    57	1	 2.95893	 22.1311	 -12.924
    58	1	 15.7216	-5.85288	 25.6626
    59	1	-9.61016	 11.7143	-35.8876
ITEM: TIMESTEP
799
ITEM: NUMBER OF ATOMS
60
ITEM: BOX BOUNDS
-40	40
-40	40
-40	40
ITEM: ATOMS index type x y z
     0	1	 18.9733	 20.5123	 12.5227
     1	1	-14.5255	  23.993	  1.5424
     2	1	-25.9669	-1.93148	-8.45925
     3	1	 6.30935	 31.4499	 13.0743
     4	1	-0.105857	 4.76202	-24.9947
     5	1	 11.6518	 17.8042	 10.7971
     6	1	-5.34455	-28.3195	-7.83734
     7	1	 14.7501	-25.9565	 -4.6601
     8	1	-35.9282	-14.9287	0.504788
     9	1	-25.0069	0.884684	 18.9993
    10	1	-10.5489	 -26.735	-3.09338
    11	1	 10.0354	 13.9015	 15.6473
    12	1	-1.68018	-32.3773	 -12.745
    13	1	-31.9759	 -5.0003	 -1.9914
    14	1	-6.35494	  21.825	  9.8015
    15	1	-8.46108	  9.4706	 -11.908
    16	1	-35.8733	 8.94063	 5.39301
    17	1	-0.0871299	 17.6615	-28.0552
    18	1	-20.1476	-9.56394	-5.60495
    19	1	 7.67202	 11.0973	-5.17772
    20	1	 4.32432	 16.9799	 11.1479
    21	1	 12.9901	 14.6023	-24.3667
    22	1	-29.2252	-1.18665	 -9.9779
    23	1	-19.1436	 10.9132	 5.96094
    24	1	-19.0359	-24.3404	-4.26241
    25	1	 25.8725	-17.0508	 8.68883
    26	1	-20.7092	-7.04089	 14.0027
    27	1	-29.9609	-1.66377	 21.9782
    28	1	-13.0299	-23.4395	-12.4143
    29	1	 12.0519	 14.2129	 8.52229
    30	1	 8.98906	 36.7811	-0.236197
    31	1	 2.31623	 -2.9981	 16.5476
    32	1	-15.7762	-14.1956	-15.6946
    33	1	 3.01279	-7.21071	-22.5971
    34	1	-20.3019	-8.84357	-2.62028
    35	1	-9.94104	-4.72708	-30.1481
    36	1	-28.9261	-19.3854	-7.95227
    37	1	-10.3043	 17.8382	-17.4949
    38	1	 15.2783	0.0283063	-30.1223
    39	1	 -27.518	 14.3384	 17.4356
    40	1	  13.498	 6.17057	 35.7736
    41	1	 13.9992	  4.1191	 6.73354
    42	1	 14.8447	-2.93241	  5.7481
    43	1	 -33.726	 10.9403	-8.87527
    44	1	 18.6825	-4.34999	-6.43975
    45	1	 20.5976	-4.92519	 -24.362
    46	1	 6.11513	-28.9688	-14.3821
    47	1	-33.6226	 8.89146	 1.11864
    48	1	   9.831	-29.1382	 11.4597
    49	1	-28.8736	 12.0852	-18.5573
    50	1	-9.17984	 7.00426	 13.2131
    51	1	 7.31503	 1.16122	-13.0304
    52	1	-8.15597	 30.3182	 21.4468
    53	1	 15.6432	-18.4518	 18.6669
    54	1	-27.3668	-7.80276	 2.54959
    55	1	 5.94599	 26.2533	-23.3159
    56	1	 24.7606	 24.2473	-1.46653
    57	1	 2.95657	 22.1051	-12.9036
    58	1	 15.7123	-5.85076	 25.6479
    59	1	-9.61045	 11.7123	-35.8857
ITEM: TIMESTEP
899
ITEM: NUMBER OF ATOMS
60
ITEM: BOX BOUNDS
-40	40
-40	40
-40	40
ITEM: ATOMS index type x y z
     0	1	 18.9804	 20.5026	 12.5188
     1	1	-14.5092	 23.9701	 1.53753
     2	1	-25.8775	-1.93062	-8.43951
     3	1	 6.30717	 31.4432	 13.0721
     4	1	-0.104216	 4.75052	-24.9511
     5	1	 11.6311	 17.8023	 10.7819
     6	1	-5.32802	-28.2934	-7.82414
     7	1	 14.7424	-25.9313	-4.65382
     8	1	-35.9323	-14.9375	0.511648
     9	1	-24.9725	0.890146	 18.9898
    10	1	-10.5331	-26.7096	-3.06914
    11	1	 10.0089	 13.8477	 15.6429
    12	1	-1.67378	-32.3755	-12.7469
    13	1	 -31.975	-4.99495	-1.98749
    14	1	-6.34467	 21.7831	 9.78368
    15	1	-8.40192	 9.40215	-11.8233
    16	1	-35.8818	 8.94412	 5.42224
    17	1	-0.0870284	 17.6536	-28.0446
    18	1	-20.0543	-9.62578	-5.93641
    19	1	 7.58336	 10.9617	-5.11714
    20	1	 4.28388	 16.9171	 11.1067
    21	1	 12.9902	 14.5908	-24.3482
    22	1	-29.2516	-1.16918	-10.0091
    23	1	-19.0853	 10.8867	 5.94595
    24	1	-19.0254	-24.3305	-4.24982
    25	1	  25.859	-17.0392	 8.68164
    26	1	-20.6615	 -7.0391	 13.9874
    27	1	-29.9636	 -1.6723	  21.989
    28	1	-13.0132	-23.4188	-12.4137
    29	1	 12.0192	 14.1193	 8.45469
    30	1	 8.98777	  36.775	-0.239095
    31	1	 2.29757	-2.98352	 16.4299
    32	1	-15.7443	-14.1708	 -15.682
    33	1	 3.00925	-7.20266	-22.5447
    34	1	-20.2416	-8.73835	-2.26091
    35	1	-9.93507	-4.72791	-30.1322
    36	1	-28.9212	-19.3901	-7.95577
    37	1	-10.2934	 17.8197	-17.4715
    38	1	 15.2727	0.0284246	-30.1124
    39	1	-27.5059	 14.3402	 17.4368
    40	1	 13.4942	 6.16805	 35.7667
    41	1	 13.8831	  4.0802	 6.67509
    42	1	 14.7222	 -2.9247	 5.69881
    43	1	-33.7194	 10.9475	-8.87864
    44	1	  18.612	-4.33662	-6.41399
    45	1	 20.5933	-4.92839	-24.3411
    46	1	 6.12479	-28.9485	 -14.378
    47	1	-33.5984	  8.8952	 1.09938
    48	1	 9.82375	-29.1212	 11.4547
    49	1	-28.8616	 12.0869	 -18.561
    50	1	-9.11408	 6.95302	 13.1323
    51	1	 7.24026	 1.14321	-12.8862
    52	1	-8.15539	  30.312	 21.4465
    53	1	 15.6288	-18.4373	 18.6533
    54	1	-27.3303	-7.80098	 2.57129
    55	1	 5.94848	 26.2519	-23.3087
    56	1	  24.756	 24.2356	-1.46951
    57	1	 2.95348	 22.0709	-12.8768
    58	1	 15.7002	-5.84797	 25.6287
    59	1	-9.61083	 11.7096	-35.8831
ITEM: TIMESTEP
999
ITEM: NUMBER OF ATOMS
60
ITEM: BOX BOUNDS
-40	40
-40	40
-40	40
ITEM: ATOMS index type x y z
     0	1	 18.9894	 20.4902	 12.5137
     1	1	-14.4885	 23.9411	 1.53134
     2	1	-25.7641	-1.92943	-8.41452
     3	1	  6.3044	 31.4346	 13.0693
     4	1	-0.102126	 4.73588	-24.8955
     5	1	 11.6046	 17.7997	 10.7624
     6	1	  -5.307	-28.2602	-7.80736
     7	1	 14.7325	-25.8993	-4.64584
     8	1	-35.9375	-14.9486	 0.52037
     9	1	-24.9288	0.897083	 18.9776
    10	1	-10.5129	-26.6772	-3.03832
    11	1	 9.97515	 13.7794	 15.6373
    12	1	-1.66563	-32.3733	-12.7494
    13	1	-31.9738	-4.98816	-1.98253
    14	1	 -6.3316	 21.7298	 9.76102
    15	1	-8.32656	 9.31498	-11.7154
    16	1	-35.8927	 8.94856	 5.45937
    17	1	-0.0868989	 17.6436	-28.0312
    18	1	-19.9363	-9.70197	-6.34789
    19	1	 7.47033	 10.7889	-5.03991
    20	1	 4.23246	 16.8371	 11.0542
    21	1	 12.9903	 14.5761	-24.3248
    22	1	-29.2849	-1.14707	-10.0486
    23	1	 -19.011	 10.8529	 5.92685
    24	1	-19.0121	-24.3179	-4.23382
    25	1	 25.8417	-17.0244	  8.6725
    26	1	 -20.601	-7.03682	 13.9679
    27	1	 -29.967	-1.68314	 22.0026
    28	1	-12.9919	-23.3924	 -12.413
    29	1	 11.9775	 14.0004	  8.3688
    30	1	 8.98614	 36.7672	-0.24278
    31	1	  2.2738	-2.96493	 16.2799
    32	1	-15.7037	-14.1392	-15.6659
    33	1	 3.00475	-7.19241	-22.4781
    34	1	-20.1642	-8.60691	-1.81393
    35	1	-9.92747	-4.72896	-30.1121
    36	1	-28.9149	-19.3962	-7.96021
    37	1	-10.2795	 17.7961	-17.4418
    38	1	 15.2655	0.0285745	-30.0998
    39	1	-27.4906	 14.3424	 17.4384
    40	1	 13.4894	 6.16484	  35.758
    41	1	 13.7351	 4.03066	 6.60064
    42	1	 14.5661	-2.91486	 5.63603
    43	1	-33.7111	 10.9566	-8.88293
    44	1	 18.5222	-4.31959	 -6.3812
    45	1	 20.5877	-4.93246	-24.3144
    46	1	 6.13708	-28.9226	-14.3728
    47	1	-33.5676	 8.89996	 1.07494
    48	1	 9.81452	-29.0996	 11.4484
    49	1	-28.8465	 12.0891	-18.5657
    50	1	-9.03034	 6.88777	 13.0293
    51	1	 7.14494	 1.12026	-12.7025
    52	1	-8.15466	  30.304	 21.4462
    53	1	 15.6104	-18.4187	 18.6361
    54	1	-27.2839	-7.79873	 2.59885
    55	1	 5.95165	 26.2502	-23.2995
    56	1	 24.7503	 24.2206	 -1.4733
    57	1	 2.94955	 22.0275	-12.8427
    58	1	 15.6847	-5.84443	 25.6043
    59	1	-9.61131	 11.7061	-35.8798
ITEM: TIMESTEP
1099
ITEM: NUMBER OF ATOMS
60
ITEM: BOX BOUNDS
-40	40
-40	40
-40	40
ITEM: ATOMS index type x y z
     0	1	 19.0003	  20.475	 12.5075
     1	1	-14.4631	 23.9055	 1.52376
     2	1	-25.6257	-1.92787	-8.38411
     3	1	 6.30101	 31.4242	 13.0659
     4	1	-0.0995665	 4.71798	-24.8275
     5	1	 11.5723	 17.7964	 10.7385
     6	1	-5.28127	-28.2196	-7.78682
     7	1	 14.7204	  -25.86	-4.63608
     8	1	-35.9439	-14.9623	0.531032
     9	1	-24.8753	0.905554	 18.9628
    10	1	-10.4882	-26.6376	-3.00061
    11	1	  9.9339	 13.6957	 15.6304
    12	1	-1.65568	-32.3706	-12.7523
    13	1	-31.9723	-4.97987	-1.97648
    14	1	-6.31561	 21.6646	  9.7333
    15	1	-8.23425	 9.20821	-11.5833
    16	1	 -35.906	 8.95398	 5.50469
    17	1	-0.08674	 17.6314	-28.0147
    18	1	-19.7927	-9.79269	-6.84097
    19	1	  7.3317	 10.5771	-4.94522
    20	1	 4.16959	 16.7392	   10.99
    21	1	 12.9905	 14.5581	-24.2961
    22	1	-29.3252	-1.12016	-10.0967
    23	1	-18.9202	 10.8116	 5.90349
    24	1	-18.9959	-24.3025	-4.21424
    25	1	 25.8206	-17.0063	 8.66131
    26	1	-20.5269	-7.03402	  13.944
    27	1	-29.9712	-1.69639	 22.0193
    28	1	-12.9658	-23.3601	-12.4122
    29	1	 11.9263	  13.855	 8.26386
    30	1	 8.98415	 36.7577	-0.247287
    31	1	  2.2447	-2.94215	 16.0961
    32	1	-15.6541	-14.1005	-15.6463
    33	1	 2.99924	-7.17986	-22.3965
    34	1	-20.0687	-8.44854	-1.27743
    35	1	-9.91816	-4.73025	-30.0874
    36	1	-28.9072	-19.4036	-7.96564
    37	1	-10.2625	 17.7672	-17.4055
    38	1	 15.2566	0.0287571	-30.0845
    39	1	-27.4717	  14.345	 17.4403
    40	1	 13.4836	 6.16091	 35.7473
    41	1	 13.5538	 3.96997	 6.50943
    42	1	 14.3748	-2.90277	 5.55911
    43	1	-33.7009	 10.9678	-8.88818
    44	1	 18.4122	-4.29874	-6.34107
    45	1	  20.581	-4.93743	-24.2818
    46	1	  6.1521	 -28.891	-14.3665
    47	1	-33.5299	 8.90579	 1.04514
    48	1	 9.80323	-29.0732	 11.4407
    49	1	-28.8279	 12.0917	-18.5715
    50	1	 -8.9278	 6.80785	 12.9032
    51	1	 7.02806	 1.09213	-12.4773
    52	1	-8.15376	 30.2942	 21.4459
    53	1	  15.588	-18.3961	  18.615
    54	1	-27.2272	-7.79596	 2.63251
    55	1	 5.95552	  26.248	-23.2883
    56	1	 24.7432	 24.2024	-1.47793
    57	1	 2.94474	 21.9743	 -12.801
    58	1	 15.6658	-5.84009	 25.5744
    59	1	 -9.6119	 11.7019	-35.8758
ITEM: TIMESTEP
1199
ITEM: NUMBER OF ATOMS
60
ITEM: BOX BOUNDS
-40	40
-40	40
-40	40
ITEM: ATOMS index type x y z
     0	1	  19.013	 20.4574	 12.5003
     1	1	-14.4336	 23.8641	 1.51493
     2	1	 -25.465	-1.92592	-8.34889
     3	1	 6.29706	 31.4119	  13.062
     4	1	-0.0965825	 4.69714	-24.7482
     5	1	 11.5348	 17.7922	 10.7105
     6	1	-5.25132	-28.1723	-7.76292
     7	1	 14.7063	-25.8144	-4.62471
     8	1	-35.9512	-14.9781	0.543435
     9	1	 -24.813	0.915396	 18.9455
    10	1	-10.4595	-26.5914	-2.95672
    11	1	  9.8859	 13.5984	 15.6221
    12	1	-1.64411	-32.3674	-12.7558
    13	1	-31.9705	-4.97024	-1.96945
    14	1	-6.29699	 21.5887	 9.70101
    15	1	-8.12663	 9.08375	-11.4294
    16	1	-35.9213	  8.9603	 5.55733
    17	1	-0.0865543	 17.6171	-27.9956
    18	1	-19.6263	-9.89583	 -7.4048
    19	1	 7.16983	 10.3298	-4.83468
    20	1	 4.09645	  16.625	 10.9151
    21	1	 12.9906	 14.5373	-24.2628
    22	1	-29.3716	-1.08901	-10.1525
    23	1	-18.8144	 10.7635	 5.87627
    24	1	-18.9769	-24.2845	-4.19146
    25	1	  25.796	-16.9852	 8.64829
    26	1	-20.4406	-7.03073	 13.9163
    27	1	 -29.976	-1.71179	 22.0387
    28	1	-12.9354	-23.3226	-12.4112
    29	1	 11.8665	  13.686	 8.14185
    30	1	 8.98183	 36.7467	-0.252532
    31	1	 2.21077	-2.91558	 15.8818
    32	1	-15.5963	-14.0555	-15.6235
    33	1	 2.99284	-7.16523	-22.3015
    34	1	-19.9567	-8.26655	-0.663078
    35	1	-9.90733	-4.73174	-30.0587
    36	1	-28.8983	-19.4122	-7.97195
    37	1	-10.2428	 17.7336	-17.3632
    38	1	 15.2463	0.0289688	-30.0666
    39	1	-27.4498	 14.3482	 17.4425
    40	1	 13.4767	 6.15634	 35.7348
    41	1	 13.3424	 3.89923	 6.40305
    42	1	 14.1517	-2.88864	 5.46942
    43	1	-33.6891	 10.9808	-8.89428
    44	1	 18.2842	-4.27445	-6.29432
    45	1	 20.5731	-4.94322	-24.2438
    46	1	 6.16959	-28.8542	-14.3591
    47	1	-33.4861	 8.91257	 1.01057
    48	1	 9.79009	-29.0424	 11.4317
    49	1	-28.8062	 12.0948	-18.5782
    50	1	-8.80828	 6.71469	 12.7561
    51	1	 6.89162	 1.05932	-12.2145
    52	1	-8.15271	 30.2829	 21.4454
    53	1	 15.5619	-18.3697	 18.5905
    54	1	-27.1613	-7.79274	 2.67163
    55	1	 5.96003	 26.2455	-23.2751
    56	1	  24.735	 24.1811	-1.48332
    57	1	 2.93915	 21.9123	-12.7525
    58	1	 15.6438	-5.83503	 25.5396
    59	1	-9.61258	 11.6971	-35.8712
ITEM: TIMESTEP
1299
ITEM: NUMBER OF ATOMS
60
ITEM: BOX BOUNDS
-40	40
-40	40
-40	40
ITEM: ATOMS index type x y z
     0	1	 19.0269	 20.4379	 12.4923
     1	1	-14.4012	 23.8186	 1.50524
     2	1	-25.2892	-1.92364	-8.31041
     3	1	 6.29274	 31.3985	 13.0576
     4	1	-0.0933007	 4.67425	-24.6612
     5	1	 11.4937	 17.7873	 10.6797
     6	1	-5.21843	-28.1203	-7.73668
     7	1	 14.6908	-25.7642	-4.61223
     8	1	-35.9593	-14.9955	0.557041
     9	1	-24.7447	0.926178	 18.9266
    10	1	 -10.428	-26.5407	-2.90855
    11	1	 9.83321	 13.4915	  15.613
    12	1	-1.63142	 -32.364	-12.7595
    13	1	-31.9685	-4.95969	-1.96176
    14	1	-6.27654	 21.5054	 9.66555
    15	1	-8.00825	 8.94687	  -11.26
    16	1	-35.9382	 8.96722	 5.61498
    17	1	-0.0863495	 17.6014	-27.9746
    18	1	-19.4443	-10.0066	-8.01392
    19	1	 6.99147	 10.0575	-4.71291
    20	1	 4.01621	 16.4996	 10.8329
    21	1	 12.9907	 14.5143	-24.2261
    22	1	-29.4219	-1.05502	-10.2134
    23	1	-18.6982	 10.7106	 5.84636
    24	1	-18.9561	-24.2648	-4.16644
    25	1	  25.769	 -16.962	 8.63399
    26	1	-20.3458	 -7.0271	 13.8858
    27	1	-29.9812	-1.72867	   22.06
    28	1	-12.9021	-23.2814	  -12.41
    29	1	 11.8006	 13.5006	 8.00808
    30	1	 8.97929	 36.7345	-0.258289
    31	1	 2.17347	-2.88632	 15.6461
    32	1	-15.5327	-14.0061	-15.5984
    33	1	  2.9858	-7.14913	-22.1972
    34	1	-19.8329	-8.06903	0.0014761
    35	1	-9.89543	-4.73337	-30.0272
    36	1	-28.8885	-19.4216	-7.97886
    37	1	-10.2211	 17.6966	-17.3167
    38	1	 15.2351	0.0292001	-30.0469
    39	1	-27.4258	 14.3516	  17.445
    40	1	 13.4693	 6.15132	 35.7211
    41	1	 13.1096	 3.82143	 6.28601
    42	1	 13.9062	-2.87306	 5.37074
    43	1	-33.6761	 10.9951	-8.90098
    44	1	 18.1434	-4.24775	-6.24296
    45	1	 20.5644	-4.94956	-24.2021
    46	1	 6.18878	-28.8137	 -14.351
    47	1	-33.4381	 8.92001	0.972756
    48	1	 9.77566	-29.0086	 11.4218
    49	1	-28.7825	 12.0982	-18.5855
    50	1	-8.67687	 6.61224	 12.5943
    51	1	 6.74131	  1.0232	-11.9253
    52	1	-8.15156	 30.2704	  21.445
    53	1	 15.5333	-18.3408	 18.5636
    54	1	-27.0889	-7.78921	 2.71448
    55	1	 5.96498	 26.2428	-23.2608
    56	1	  24.726	 24.1578	-1.48923
    57	1	 2.93302	 21.8443	-12.6991
    58	1	 15.6197	-5.82947	 25.5013
    59	1	-9.61333	 11.6917	-35.8661
ITEM: TIMESTEP
1399
ITEM: NUMBER OF ATOMS
60
ITEM: BOX BOUNDS
-40	40
-40	40
-40	40
ITEM: ATOMS index type x y z
     0	1	 19.0412	 20.4178	 12.4841
     1	1	-14.3677	 23.7716	 1.49524
     2	1	-25.1081	-1.92113	-8.27088
     3	1	 6.28828	 31.3847	 13.0531
     4	1	-0.0899053	 4.65062	-24.5713
     5	1	 11.4512	  17.782	 10.6477
     6	1	-5.18446	-28.0667	-7.70958
     7	1	 14.6748	-25.7125	-4.59934